# vtk DataFile Version 2.0
Probability density for the 3d electron position in a hydrogen atom
ASCII
DATASET STRUCTURED_POINTS
DIMENSIONS 64 64 64
ORIGIN 0.0 0.0 0.0
SPACING 1.0 1.0 1.0
POINT_DATA 262144
SCALARS probability_density float
LOOKUP_TABLE default
0.000000 0.000000 0.000000 0.000000 0.000000 0.000000 0.000000 0.000000 0.000000 0.000001 0.000001 0.000001 0.000001 0.000002 0.000003 0.000003 0.000004 0.000005 0.000006 0.000008 0.000009 0.000011 0.000012 0.000014 0.000015 0.000017 0.000019 0.000020 0.000021 0.000022 0.000023 0.000023 0.000023 0.000023 0.000022 0.000021 0.000020 0.000019 0.000017 0.000015 0.000014 0.000012 0.000011 0.000009 0.000008 0.000006 0.000005 0.000004 0.000003 0.000003 0.000002 0.000001 0.000001 0.000001 0.000001 0.000000 0.000000 0.000000 0.000000 0.000000 0.000000 0.000000 0.000000 0.000000 
0.000000 0.000000 0.000000 0.000000 0.000000 0.000000 0.000000 0.000000 0.000000 0.000001 0.000001 0.000001 0.000002 0.000002 0.000003 0.000004 0.000005 0.000006 0.000008 0.000009 0.000011 0.000013 0.000015 0.000018 0.000020 0.000022 0.000024 0.000025 0.000027 0.000028 0.000029 0.000029 0.000029 0.000029 0.000028 0.000027 0.000025 0.000024 0.000022 0.000020 0.000018 0.000015 0.000013 0.000011 0.000009 0.000008 0.000006 0.000005 0.000004 0.000003 0.000002 0.000002 0.000001 0.000001 0.000001 0.000000 0.000000 0.000000 0.000000 0.000000 0.000000 0.000000 0.000000 0.000000 
0.000000 0.000000 0.000000 0.000000 0.000000 0.000000 0.000000 0.000000 0.000000 0.000001 0.000001 0.000001 0.000002 0.000003 0.000004 0.000005 0.000006 0.000008 0.000010 0.000012 0.000014 0.000017 0.000019 0.000022 0.000025 0.000028 0.000030 0.000032 0.000034 0.000036 0.000037 0.000037 0.000037 0.000037 0.000036 0.000034 0.000032 0.000030 0.000028 0.000025 0.000022 0.000019 0.000017 0.000014 0.000012 0.000010 0.000008 0.000006 0.000005 0.000004 0.000003 0.000002 0.000001 0.000001 0.000001 0.000000 0.000000 0.000000 0.000000 0.000000 0.000000 0.000000 0.000000 0.000000 
0.000000 0.000000 0.000000 0.000000 0.000000 0.000000 0.000000 0.000000 0.000000 0.000001 0.000001 0.000002 0.000002 0.000003 0.000004 0.000006 0.000008 0.000010 0.000012 0.000015 0.000018 0.000021 0.000024 0.000028 0.000031 0.000035 0.000038 0.000041 0.000043 0.000045 0.000047 0.000047 0.000047 0.000047 0.000045 0.000043 0.000041 0.000038 0.000035 0.000031 0.000028 0.000024 0.000021 0.000018 0.000015 0.000012 0.000010 0.000008 0.000006 0.000004 0.000003 0.000002 0.000002 0.000001 0.000001 0.000000 0.000000 0.000000 0.000000 0.000000 0.000000 0.000000 0.000000 0.000000 
0.000000 0.000000 0.000000 0.000000 0.000000 0.000000 0.000000 0.000000 0.000001 0.000001 0.000001 0.000002 0.000003 0.000004 0.000005 0.000007 0.000009 0.000012 0.000015 0.000018 0.000022 0.000026 0.000030 0.000035 0.000039 0.000043 0.000048 0.000051 0.000055 0.000057 0.000059 0.000060 0.000060 0.000059 0.000057 0.000055 0.000051 0.000048 0.000043 0.000039 0.000035 0.000030 0.000026 0.000022 0.000018 0.000015 0.000012 0.000009 0.000007 0.000005 0.000004 0.000003 0.000002 0.000001 0.000001 0.000001 0.000000 0.000000 0.000000 0.000000 0.000000 0.000000 0.000000 0.000000 
0.000000 0.000000 0.000000 0.000000 0.000000 0.000000 0.000000 0.000000 0.000001 0.000001 0.000001 0.000002 0.000003 0.000005 0.000006 0.000008 0.000011 0.000014 0.000018 0.000022 0.000027 0.000032 0.000037 0.000043 0.000049 0.000054 0.000059 0.000064 0.000068 0.000072 0.000074 0.000075 0.000075 0.000074 0.000072 0.000068 0.000064 0.000059 0.000054 0.000049 0.000043 0.000037 0.000032 0.000027 0.000022 0.000018 0.000014 0.000011 0.000008 0.000006 0.000005 0.000003 0.000002 0.000001 0.000001 0.000001 0.000000 0.000000 0.000000 0.000000 0.000000 0.000000 0.000000 0.000000 
0.000000 0.000000 0.000000 0.000000 0.000000 0.000000 0.000000 0.000000 0.000001 0.000001 0.000002 0.000003 0.000004 0.000005 0.000007 0.000010 0.000013 0.000017 0.000021 0.000027 0.000032 0.000039 0.000046 0.000053 0.000060 0.000067 0.000074 0.000080 0.000085 0.000089 0.000092 0.000094 0.000094 0.000092 0.000089 0.000085 0.000080 0.000074 0.000067 0.000060 0.000053 0.000046 0.000039 0.000032 0.000027 0.000021 0.000017 0.000013 0.000010 0.000007 0.000005 0.000004 0.000003 0.000002 0.000001 0.000001 0.000000 0.000000 0.000000 0.000000 0.000000 0.000000 0.000000 0.000000 
0.000000 0.000000 0.000000 0.000000 0.000000 0.000000 0.000000 0.000000 0.000001 0.000001 0.000002 0.000003 0.000004 0.000006 0.000009 0.000012 0.000016 0.000020 0.000026 0.000032 0.000039 0.000047 0.000056 0.000065 0.000074 0.000083 0.000091 0.000099 0.000105 0.000111 0.000114 0.000116 0.000116 0.000114 0.000111 0.000105 0.000099 0.000091 0.000083 0.000074 0.000065 0.000056 0.000047 0.000039 0.000032 0.000026 0.000020 0.000016 0.000012 0.000009 0.000006 0.000004 0.000003 0.000002 0.000001 0.000001 0.000000 0.000000 0.000000 0.000000 0.000000 0.000000 0.000000 0.000000 
0.000000 0.000000 0.000000 0.000000 0.000000 0.000000 0.000000 0.000000 0.000001 0.000001 0.000002 0.000003 0.000005 0.000007 0.000010 0.000014 0.000018 0.000024 0.000031 0.000038 0.000047 0.000057 0.000068 0.000079 0.000090 0.000101 0.000111 0.000121 0.000129 0.000136 0.000141 0.000143 0.000143 0.000141 0.000136 0.000129 0.000121 0.000111 0.000101 0.000090 0.000079 0.000068 0.000057 0.000047 0.000038 0.000031 0.000024 0.000018 0.000014 0.000010 0.000007 0.000005 0.000003 0.000002 0.000001 0.000001 0.000000 0.000000 0.000000 0.000000 0.000000 0.000000 0.000000 0.000000 
0.000000 0.000000 0.000000 0.000000 0.000000 0.000000 0.000000 0.000000 0.000001 0.000001 0.000002 0.000004 0.000005 0.000008 0.000011 0.000016 0.000021 0.000028 0.000036 0.000046 0.000056 0.000068 0.000081 0.000095 0.000109 0.000123 0.000136 0.000148 0.000158 0.000166 0.000172 0.000175 0.000175 0.000172 0.000166 0.000158 0.000148 0.000136 0.000123 0.000109 0.000095 0.000081 0.000068 0.000056 0.000046 0.000036 0.000028 0.000021 0.000016 0.000011 0.000008 0.000005 0.000004 0.000002 0.000001 0.000001 0.000000 0.000000 0.000000 0.000000 0.000000 0.000000 0.000000 0.000000 
0.000000 0.000000 0.000000 0.000000 0.000000 0.000000 0.000000 0.000000 0.000001 0.000001 0.000002 0.000004 0.000006 0.000009 0.000013 0.000018 0.000025 0.000033 0.000043 0.000054 0.000067 0.000082 0.000097 0.000114 0.000131 0.000148 0.000164 0.000179 0.000192 0.000202 0.000209 0.000212 0.000212 0.000209 0.000202 0.000192 0.000179 0.000164 0.000148 0.000131 0.000114 0.000097 0.000082 0.000067 0.000054 0.000043 0.000033 0.000025 0.000018 0.000013 0.000009 0.000006 0.000004 0.000002 0.000001 0.000001 0.000000 0.000000 0.000000 0.000000 0.000000 0.000000 0.000000 0.000000 
0.000000 0.000000 0.000000 0.000000 0.000000 0.000000 0.000000 0.000000 0.000001 0.000001 0.000002 0.000004 0.000007 0.000010 0.000015 0.000021 0.000029 0.000038 0.000050 0.000063 0.000079 0.000096 0.000116 0.000136 0.000157 0.000177 0.000197 0.000215 0.000231 0.000243 0.000252 0.000256 0.000256 0.000252 0.000243 0.000231 0.000215 0.000197 0.000177 0.000157 0.000136 0.000116 0.000096 0.000079 0.000063 0.000050 0.000038 0.000029 0.000021 0.000015 0.000010 0.000007 0.000004 0.000002 0.000001 0.000001 0.000000 0.000000 0.000000 0.000000 0.000000 0.000000 0.000000 0.000000 
0.000000 0.000000 0.000000 0.000000 0.000000 0.000000 0.000000 0.000000 0.000001 0.000001 0.000003 0.000004 0.000007 0.000011 0.000016 0.000024 0.000033 0.000044 0.000058 0.000074 0.000092 0.000113 0.000136 0.000161 0.000186 0.000211 0.000235 0.000257 0.000276 0.000291 0.000302 0.000307 0.000307 0.000302 0.000291 0.000276 0.000257 0.000235 0.000211 0.000186 0.000161 0.000136 0.000113 0.000092 0.000074 0.000058 0.000044 0.000033 0.000024 0.000016 0.000011 0.000007 0.000004 0.000003 0.000001 0.000001 0.000000 0.000000 0.000000 0.000000 0.000000 0.000000 0.000000 0.000000 
0.000000 0.000000 0.000000 0.000000 0.000000 0.000000 0.000000 0.000000 0.000001 0.000001 0.000003 0.000005 0.000008 0.000012 0.000018 0.000026 0.000037 0.000050 0.000066 0.000085 0.000107 0.000132 0.000159 0.000189 0.000219 0.000249 0.000278 0.000304 0.000327 0.000346 0.000359 0.000365 0.000365 0.000359 0.000346 0.000327 0.000304 0.000278 0.000249 0.000219 0.000189 0.000159 0.000132 0.000107 0.000085 0.000066 0.000050 0.000037 0.000026 0.000018 0.000012 0.000008 0.000005 0.000003 0.000001 0.000001 0.000000 0.000000 0.000000 0.000000 0.000000 0.000000 0.000000 0.000000 
0.000001 0.000001 0.000000 0.000000 0.000000 0.000000 0.000000 0.000000 0.000000 0.000001 0.000003 0.000005 0.000008 0.000013 0.000020 0.000029 0.000041 0.000057 0.000075 0.000098 0.000124 0.000153 0.000185 0.000220 0.000256 0.000292 0.000326 0.000358 0.000386 0.000408 0.000423 0.000431 0.000431 0.000423 0.000408 0.000386 0.000358 0.000326 0.000292 0.000256 0.000220 0.000185 0.000153 0.000124 0.000098 0.000075 0.000057 0.000041 0.000029 0.000020 0.000013 0.000008 0.000005 0.000003 0.000001 0.000000 0.000000 0.000000 0.000000 0.000000 0.000000 0.000000 0.000001 0.000001 
0.000001 0.000001 0.000001 0.000000 0.000000 0.000000 0.000000 0.000000 0.000000 0.000001 0.000003 0.000005 0.000009 0.000014 0.000022 0.000033 0.000046 0.000064 0.000085 0.000111 0.000141 0.000176 0.000214 0.000254 0.000297 0.000339 0.000380 0.000418 0.000451 0.000477 0.000495 0.000505 0.000505 0.000495 0.000477 0.000451 0.000418 0.000380 0.000339 0.000297 0.000254 0.000214 0.000176 0.000141 0.000111 0.000085 0.000064 0.000046 0.000033 0.000022 0.000014 0.000009 0.000005 0.000003 0.000001 0.000000 0.000000 0.000000 0.000000 0.000000 0.000000 0.000001 0.000001 0.000001 
0.000001 0.000001 0.000001 0.000001 0.000000 0.000000 0.000000 0.000000 0.000000 0.000001 0.000002 0.000005 0.000009 0.000015 0.000024 0.000036 0.000051 0.000071 0.000096 0.000125 0.000160 0.000200 0.000244 0.000292 0.000341 0.000391 0.000439 0.000484 0.000523 0.000554 0.000575 0.000586 0.000586 0.000575 0.000554 0.000523 0.000484 0.000439 0.000391 0.000341 0.000292 0.000244 0.000200 0.000160 0.000125 0.000096 0.000071 0.000051 0.000036 0.000024 0.000015 0.000009 0.000005 0.000002 0.000001 0.000000 0.000000 0.000000 0.000000 0.000000 0.000001 0.000001 0.000001 0.000001 
0.000001 0.000001 0.000001 0.000001 0.000001 0.000000 0.000000 0.000000 0.000000 0.000001 0.000002 0.000005 0.000009 0.000016 0.000026 0.000039 0.000056 0.000079 0.000107 0.000141 0.000181 0.000226 0.000277 0.000332 0.000390 0.000448 0.000504 0.000556 0.000601 0.000637 0.000663 0.000676 0.000676 0.000663 0.000637 0.000601 0.000556 0.000504 0.000448 0.000390 0.000332 0.000277 0.000226 0.000181 0.000141 0.000107 0.000079 0.000056 0.000039 0.000026 0.000016 0.000009 0.000005 0.000002 0.000001 0.000000 0.000000 0.000000 0.000000 0.000001 0.000001 0.000001 0.000001 0.000001 
0.000002 0.000002 0.000001 0.000001 0.000001 0.000001 0.000000 0.000000 0.000000 0.000001 0.000002 0.000005 0.000010 0.000017 0.000027 0.000042 0.000061 0.000086 0.000118 0.000156 0.000202 0.000254 0.000312 0.000375 0.000441 0.000508 0.000573 0.000633 0.000685 0.000728 0.000757 0.000772 0.000772 0.000757 0.000728 0.000685 0.000633 0.000573 0.000508 0.000441 0.000375 0.000312 0.000254 0.000202 0.000156 0.000118 0.000086 0.000061 0.000042 0.000027 0.000017 0.000010 0.000005 0.000002 0.000001 0.000000 0.000000 0.000000 0.000001 0.000001 0.000001 0.000001 0.000002 0.000002 
0.000002 0.000002 0.000002 0.000001 0.000001 0.000001 0.000000 0.000000 0.000000 0.000001 0.000002 0.000005 0.000010 0.000018 0.000029 0.000045 0.000066 0.000094 0.000129 0.000172 0.000223 0.000282 0.000349 0.000420 0.000496 0.000572 0.000646 0.000715 0.000775 0.000823 0.000857 0.000875 0.000875 0.000857 0.000823 0.000775 0.000715 0.000646 0.000572 0.000496 0.000420 0.000349 0.000282 0.000223 0.000172 0.000129 0.000094 0.000066 0.000045 0.000029 0.000018 0.000010 0.000005 0.000002 0.000001 0.000000 0.000000 0.000000 0.000001 0.000001 0.000001 0.000002 0.000002 0.000002 
0.000002 0.000002 0.000002 0.000002 0.000001 0.000001 0.000001 0.000000 0.000000 0.000000 0.000002 0.000005 0.000010 0.000018 0.000030 0.000048 0.000071 0.000102 0.000141 0.000189 0.000246 0.000312 0.000386 0.000467 0.000552 0.000638 0.000722 0.000801 0.000869 0.000924 0.000962 0.000982 0.000982 0.000962 0.000924 0.000869 0.000801 0.000722 0.000638 0.000552 0.000467 0.000386 0.000312 0.000246 0.000189 0.000141 0.000102 0.000071 0.000048 0.000030 0.000018 0.000010 0.000005 0.000002 0.000000 0.000000 0.000000 0.000001 0.000001 0.000001 0.000002 0.000002 0.000002 0.000002 
0.000003 0.000003 0.000003 0.000002 0.000002 0.000001 0.000001 0.000000 0.000000 0.000000 0.000002 0.000005 0.000010 0.000019 0.000032 0.000050 0.000076 0.000109 0.000152 0.000205 0.000268 0.000341 0.000424 0.000514 0.000609 0.000706 0.000801 0.000888 0.000965 0.001027 0.001071 0.001093 0.001093 0.001071 0.001027 0.000965 0.000888 0.000801 0.000706 0.000609 0.000514 0.000424 0.000341 0.000268 0.000205 0.000152 0.000109 0.000076 0.000050 0.000032 0.000019 0.000010 0.000005 0.000002 0.000000 0.000000 0.000000 0.000001 0.000001 0.000002 0.000002 0.000003 0.000003 0.000003 
0.000003 0.000003 0.000003 0.000003 0.000002 0.000002 0.000001 0.000000 0.000000 0.000000 0.000001 0.000004 0.000010 0.000019 0.000033 0.000053 0.000080 0.000116 0.000163 0.000221 0.000290 0.000371 0.000462 0.000561 0.000667 0.000774 0.000879 0.000977 0.001063 0.001132 0.001180 0.001205 0.001205 0.001180 0.001132 0.001063 0.000977 0.000879 0.000774 0.000667 0.000561 0.000462 0.000371 0.000290 0.000221 0.000163 0.000116 0.000080 0.000053 0.000033 0.000019 0.000010 0.000004 0.000001 0.000000 0.000000 0.000000 0.000001 0.000002 0.000002 0.000003 0.000003 0.000003 0.000003 
0.000003 0.000004 0.000003 0.000003 0.000003 0.000002 0.000001 0.000001 0.000000 0.000000 0.000001 0.000004 0.000010 0.000019 0.000034 0.000055 0.000084 0.000123 0.000173 0.000236 0.000311 0.000399 0.000499 0.000608 0.000723 0.000842 0.000957 0.001065 0.001160 0.001236 0.001289 0.001317 0.001317 0.001289 0.001236 0.001160 0.001065 0.000957 0.000842 0.000723 0.000608 0.000499 0.000399 0.000311 0.000236 0.000173 0.000123 0.000084 0.000055 0.000034 0.000019 0.000010 0.000004 0.000001 0.000000 0.000000 0.000001 0.000001 0.000002 0.000003 0.000003 0.000003 0.000004 0.000003 
0.000004 0.000004 0.000004 0.000004 0.000003 0.000002 0.000002 0.000001 0.000000 0.000000 0.000001 0.000004 0.000010 0.000019 0.000035 0.000057 0.000088 0.000129 0.000183 0.000250 0.000331 0.000426 0.000534 0.000652 0.000778 0.000906 0.001032 0.001150 0.001253 0.001337 0.001395 0.001425 0.001425 0.001395 0.001337 0.001253 0.001150 0.001032 0.000906 0.000778 0.000652 0.000534 0.000426 0.000331 0.000250 0.000183 0.000129 0.000088 0.000057 0.000035 0.000019 0.000010 0.000004 0.000001 0.000000 0.000000 0.000001 0.000002 0.000002 0.000003 0.000004 0.000004 0.000004 0.000004 
0.000004 0.000004 0.000004 0.000004 0.000004 0.000003 0.000002 0.000001 0.000000 0.000000 0.000001 0.000004 0.000010 0.000020 0.000035 0.000058 0.000091 0.000135 0.000192 0.000263 0.000350 0.000451 0.000567 0.000694 0.000829 0.000968 0.001103 0.001230 0.001342 0.001432 0.001495 0.001528 0.001528 0.001495 0.001432 0.001342 0.001230 0.001103 0.000968 0.000829 0.000694 0.000567 0.000451 0.000350 0.000263 0.000192 0.000135 0.000091 0.000058 0.000035 0.000020 0.000010 0.000004 0.000001 0.000000 0.000000 0.000001 0.000002 0.000003 0.000004 0.000004 0.000004 0.000004 0.000004 
0.000005 0.000005 0.000005 0.000005 0.000004 0.000003 0.000002 0.000001 0.000000 0.000000 0.000001 0.000004 0.000009 0.000020 0.000036 0.000060 0.000094 0.000140 0.000200 0.000275 0.000367 0.000474 0.000597 0.000732 0.000876 0.001023 0.001168 0.001304 0.001423 0.001519 0.001587 0.001622 0.001622 0.001587 0.001519 0.001423 0.001304 0.001168 0.001023 0.000876 0.000732 0.000597 0.000474 0.000367 0.000275 0.000200 0.000140 0.000094 0.000060 0.000036 0.000020 0.000009 0.000004 0.000001 0.000000 0.000000 0.000001 0.000002 0.000003 0.000004 0.000005 0.000005 0.000005 0.000005 
0.000005 0.000005 0.000005 0.000005 0.000004 0.000004 0.000003 0.000001 0.000000 0.000000 0.000001 0.000003 0.000009 0.000020 0.000036 0.000061 0.000096 0.000144 0.000207 0.000285 0.000381 0.000494 0.000623 0.000765 0.000917 0.001072 0.001226 0.001369 0.001495 0.001597 0.001668 0.001705 0.001705 0.001668 0.001597 0.001495 0.001369 0.001226 0.001072 0.000917 0.000765 0.000623 0.000494 0.000381 0.000285 0.000207 0.000144 0.000096 0.000061 0.000036 0.000020 0.000009 0.000003 0.000001 0.000000 0.000000 0.000001 0.000003 0.000004 0.000004 0.000005 0.000005 0.000005 0.000005 
0.000005 0.000005 0.000005 0.000005 0.000005 0.000004 0.000003 0.000002 0.000001 0.000000 0.000001 0.000003 0.000009 0.000020 0.000037 0.000062 0.000098 0.000148 0.000212 0.000294 0.000393 0.000511 0.000645 0.000793 0.000951 0.001113 0.001273 0.001423 0.001555 0.001661 0.001736 0.001775 0.001775 0.001736 0.001661 0.001555 0.001423 0.001273 0.001113 0.000951 0.000793 0.000645 0.000511 0.000393 0.000294 0.000212 0.000148 0.000098 0.000062 0.000037 0.000020 0.000009 0.000003 0.000001 0.000000 0.000001 0.000002 0.000003 0.000004 0.000005 0.000005 0.000005 0.000005 0.000005 
0.000005 0.000006 0.000006 0.000006 0.000005 0.000004 0.000003 0.000002 0.000001 0.000000 0.000001 0.000003 0.000009 0.000020 0.000037 0.000063 0.000100 0.000150 0.000217 0.000300 0.000402 0.000523 0.000662 0.000814 0.000978 0.001145 0.001311 0.001465 0.001602 0.001712 0.001789 0.001829 0.001829 0.001789 0.001712 0.001602 0.001465 0.001311 0.001145 0.000978 0.000814 0.000662 0.000523 0.000402 0.000300 0.000217 0.000150 0.000100 0.000063 0.000037 0.000020 0.000009 0.000003 0.000001 0.000000 0.000001 0.000002 0.000003 0.000004 0.000005 0.000006 0.000006 0.000006 0.000005 
0.000006 0.000006 0.000006 0.000006 0.000005 0.000004 0.000003 0.000002 0.000001 0.000000 0.000000 0.000003 0.000009 0.000019 0.000037 0.000063 0.000101 0.000152 0.000219 0.000305 0.000409 0.000532 0.000673 0.000829 0.000996 0.001167 0.001336 0.001494 0.001634 0.001746 0.001825 0.001866 0.001866 0.001825 0.001746 0.001634 0.001494 0.001336 0.001167 0.000996 0.000829 0.000673 0.000532 0.000409 0.000305 0.000219 0.000152 0.000101 0.000063 0.000037 0.000019 0.000009 0.000003 0.000000 0.000000 0.000001 0.000002 0.000003 0.000004 0.000005 0.000006 0.000006 0.000006 0.000006 
0.000006 0.000006 0.000006 0.000006 0.000005 0.000004 0.000003 0.000002 0.000001 0.000000 0.000000 0.000003 0.000009 0.000019 0.000037 0.000063 0.000101 0.000153 0.000221 0.000307 0.000412 0.000536 0.000679 0.000836 0.001005 0.001178 0.001349 0.001509 0.001650 0.001764 0.001844 0.001885 0.001885 0.001844 0.001764 0.001650 0.001509 0.001349 0.001178 0.001005 0.000836 0.000679 0.000536 0.000412 0.000307 0.000221 0.000153 0.000101 0.000063 0.000037 0.000019 0.000009 0.000003 0.000000 0.000000 0.000001 0.000002 0.000003 0.000004 0.000005 0.000006 0.000006 0.000006 0.000006 
0.000006 0.000006 0.000006 0.000006 0.000005 0.000004 0.000003 0.000002 0.000001 0.000000 0.000000 0.000003 0.000009 0.000019 0.000037 0.000063 0.000101 0.000153 0.000221 0.000307 0.000412 0.000536 0.000679 0.000836 0.001005 0.001178 0.001349 0.001509 0.001650 0.001764 0.001844 0.001885 0.001885 0.001844 0.001764 0.001650 0.001509 0.001349 0.001178 0.001005 0.000836 0.000679 0.000536 0.000412 0.000307 0.000221 0.000153 0.000101 0.000063 0.000037 0.000019 0.000009 0.000003 0.000000 0.000000 0.000001 0.000002 0.000003 0.000004 0.000005 0.000006 0.000006 0.000006 0.000006 
0.000006 0.000006 0.000006 0.000006 0.000005 0.000004 0.000003 0.000002 0.000001 0.000000 0.000000 0.000003 0.000009 0.000019 0.000037 0.000063 0.000101 0.000152 0.000219 0.000305 0.000409 0.000532 0.000673 0.000829 0.000996 0.001167 0.001336 0.001494 0.001634 0.001746 0.001825 0.001866 0.001866 0.001825 0.001746 0.001634 0.001494 0.001336 0.001167 0.000996 0.000829 0.000673 0.000532 0.000409 0.000305 0.000219 0.000152 0.000101 0.000063 0.000037 0.000019 0.000009 0.000003 0.000000 0.000000 0.000001 0.000002 0.000003 0.000004 0.000005 0.000006 0.000006 0.000006 0.000006 
0.000005 0.000006 0.000006 0.000006 0.000005 0.000004 0.000003 0.000002 0.000001 0.000000 0.000001 0.000003 0.000009 0.000020 0.000037 0.000063 0.000100 0.000150 0.000217 0.000300 0.000402 0.000523 0.000662 0.000814 0.000978 0.001145 0.001311 0.001465 0.001602 0.001712 0.001789 0.001829 0.001829 0.001789 0.001712 0.001602 0.001465 0.001311 0.001145 0.000978 0.000814 0.000662 0.000523 0.000402 0.000300 0.000217 0.000150 0.000100 0.000063 0.000037 0.000020 0.000009 0.000003 0.000001 0.000000 0.000001 0.000002 0.000003 0.000004 0.000005 0.000006 0.000006 0.000006 0.000005 
0.000005 0.000005 0.000005 0.000005 0.000005 0.000004 0.000003 0.000002 0.000001 0.000000 0.000001 0.000003 0.000009 0.000020 0.000037 0.000062 0.000098 0.000148 0.000212 0.000294 0.000393 0.000511 0.000645 0.000793 0.000951 0.001113 0.001273 0.001423 0.001555 0.001661 0.001736 0.001775 0.001775 0.001736 0.001661 0.001555 0.001423 0.001273 0.001113 0.000951 0.000793 0.000645 0.000511 0.000393 0.000294 0.000212 0.000148 0.000098 0.000062 0.000037 0.000020 0.000009 0.000003 0.000001 0.000000 0.000001 0.000002 0.000003 0.000004 0.000005 0.000005 0.000005 0.000005 0.000005 
0.000005 0.000005 0.000005 0.000005 0.000004 0.000004 0.000003 0.000001 0.000000 0.000000 0.000001 0.000003 0.000009 0.000020 0.000036 0.000061 0.000096 0.000144 0.000207 0.000285 0.000381 0.000494 0.000623 0.000765 0.000917 0.001072 0.001226 0.001369 0.001495 0.001597 0.001668 0.001705 0.001705 0.001668 0.001597 0.001495 0.001369 0.001226 0.001072 0.000917 0.000765 0.000623 0.000494 0.000381 0.000285 0.000207 0.000144 0.000096 0.000061 0.000036 0.000020 0.000009 0.000003 0.000001 0.000000 0.000000 0.000001 0.000003 0.000004 0.000004 0.000005 0.000005 0.000005 0.000005 
0.000005 0.000005 0.000005 0.000005 0.000004 0.000003 0.000002 0.000001 0.000000 0.000000 0.000001 0.000004 0.000009 0.000020 0.000036 0.000060 0.000094 0.000140 0.000200 0.000275 0.000367 0.000474 0.000597 0.000732 0.000876 0.001023 0.001168 0.001304 0.001423 0.001519 0.001587 0.001622 0.001622 0.001587 0.001519 0.001423 0.001304 0.001168 0.001023 0.000876 0.000732 0.000597 0.000474 0.000367 0.000275 0.000200 0.000140 0.000094 0.000060 0.000036 0.000020 0.000009 0.000004 0.000001 0.000000 0.000000 0.000001 0.000002 0.000003 0.000004 0.000005 0.000005 0.000005 0.000005 
0.000004 0.000004 0.000004 0.000004 0.000004 0.000003 0.000002 0.000001 0.000000 0.000000 0.000001 0.000004 0.000010 0.000020 0.000035 0.000058 0.000091 0.000135 0.000192 0.000263 0.000350 0.000451 0.000567 0.000694 0.000829 0.000968 0.001103 0.001230 0.001342 0.001432 0.001495 0.001528 0.001528 0.001495 0.001432 0.001342 0.001230 0.001103 0.000968 0.000829 0.000694 0.000567 0.000451 0.000350 0.000263 0.000192 0.000135 0.000091 0.000058 0.000035 0.000020 0.000010 0.000004 0.000001 0.000000 0.000000 0.000001 0.000002 0.000003 0.000004 0.000004 0.000004 0.000004 0.000004 
0.000004 0.000004 0.000004 0.000004 0.000003 0.000002 0.000002 0.000001 0.000000 0.000000 0.000001 0.000004 0.000010 0.000019 0.000035 0.000057 0.000088 0.000129 0.000183 0.000250 0.000331 0.000426 0.000534 0.000652 0.000778 0.000906 0.001032 0.001150 0.001253 0.001337 0.001395 0.001425 0.001425 0.001395 0.001337 0.001253 0.001150 0.001032 0.000906 0.000778 0.000652 0.000534 0.000426 0.000331 0.000250 0.000183 0.000129 0.000088 0.000057 0.000035 0.000019 0.000010 0.000004 0.000001 0.000000 0.000000 0.000001 0.000002 0.000002 0.000003 0.000004 0.000004 0.000004 0.000004 
0.000003 0.000004 0.000003 0.000003 0.000003 0.000002 0.000001 0.000001 0.000000 0.000000 0.000001 0.000004 0.000010 0.000019 0.000034 0.000055 0.000084 0.000123 0.000173 0.000236 0.000311 0.000399 0.000499 0.000608 0.000723 0.000842 0.000957 0.001065 0.001160 0.001236 0.001289 0.001317 0.001317 0.001289 0.001236 0.001160 0.001065 0.000957 0.000842 0.000723 0.000608 0.000499 0.000399 0.000311 0.000236 0.000173 0.000123 0.000084 0.000055 0.000034 0.000019 0.000010 0.000004 0.000001 0.000000 0.000000 0.000001 0.000001 0.000002 0.000003 0.000003 0.000003 0.000004 0.000003 
0.000003 0.000003 0.000003 0.000003 0.000002 0.000002 0.000001 0.000000 0.000000 0.000000 0.000001 0.000004 0.000010 0.000019 0.000033 0.000053 0.000080 0.000116 0.000163 0.000221 0.000290 0.000371 0.000462 0.000561 0.000667 0.000774 0.000879 0.000977 0.001063 0.001132 0.001180 0.001205 0.001205 0.001180 0.001132 0.001063 0.000977 0.000879 0.000774 0.000667 0.000561 0.000462 0.000371 0.000290 0.000221 0.000163 0.000116 0.000080 0.000053 0.000033 0.000019 0.000010 0.000004 0.000001 0.000000 0.000000 0.000000 0.000001 0.000002 0.000002 0.000003 0.000003 0.000003 0.000003 
0.000003 0.000003 0.000003 0.000002 0.000002 0.000001 0.000001 0.000000 0.000000 0.000000 0.000002 0.000005 0.000010 0.000019 0.000032 0.000050 0.000076 0.000109 0.000152 0.000205 0.000268 0.000341 0.000424 0.000514 0.000609 0.000706 0.000801 0.000888 0.000965 0.001027 0.001071 0.001093 0.001093 0.001071 0.001027 0.000965 0.000888 0.000801 0.000706 0.000609 0.000514 0.000424 0.000341 0.000268 0.000205 0.000152 0.000109 0.000076 0.000050 0.000032 0.000019 0.000010 0.000005 0.000002 0.000000 0.000000 0.000000 0.000001 0.000001 0.000002 0.000002 0.000003 0.000003 0.000003 
0.000002 0.000002 0.000002 0.000002 0.000001 0.000001 0.000001 0.000000 0.000000 0.000000 0.000002 0.000005 0.000010 0.000018 0.000030 0.000048 0.000071 0.000102 0.000141 0.000189 0.000246 0.000312 0.000386 0.000467 0.000552 0.000638 0.000722 0.000801 0.000869 0.000924 0.000962 0.000982 0.000982 0.000962 0.000924 0.000869 0.000801 0.000722 0.000638 0.000552 0.000467 0.000386 0.000312 0.000246 0.000189 0.000141 0.000102 0.000071 0.000048 0.000030 0.000018 0.000010 0.000005 0.000002 0.000000 0.000000 0.000000 0.000001 0.000001 0.000001 0.000002 0.000002 0.000002 0.000002 
0.000002 0.000002 0.000002 0.000001 0.000001 0.000001 0.000000 0.000000 0.000000 0.000001 0.000002 0.000005 0.000010 0.000018 0.000029 0.000045 0.000066 0.000094 0.000129 0.000172 0.000223 0.000282 0.000349 0.000420 0.000496 0.000572 0.000646 0.000715 0.000775 0.000823 0.000857 0.000875 0.000875 0.000857 0.000823 0.000775 0.000715 0.000646 0.000572 0.000496 0.000420 0.000349 0.000282 0.000223 0.000172 0.000129 0.000094 0.000066 0.000045 0.000029 0.000018 0.000010 0.000005 0.000002 0.000001 0.000000 0.000000 0.000000 0.000001 0.000001 0.000001 0.000002 0.000002 0.000002 
0.000002 0.000002 0.000001 0.000001 0.000001 0.000001 0.000000 0.000000 0.000000 0.000001 0.000002 0.000005 0.000010 0.000017 0.000027 0.000042 0.000061 0.000086 0.000118 0.000156 0.000202 0.000254 0.000312 0.000375 0.000441 0.000508 0.000573 0.000633 0.000685 0.000728 0.000757 0.000772 0.000772 0.000757 0.000728 0.000685 0.000633 0.000573 0.000508 0.000441 0.000375 0.000312 0.000254 0.000202 0.000156 0.000118 0.000086 0.000061 0.000042 0.000027 0.000017 0.000010 0.000005 0.000002 0.000001 0.000000 0.000000 0.000000 0.000001 0.000001 0.000001 0.000001 0.000002 0.000002 
0.000001 0.000001 0.000001 0.000001 0.000001 0.000000 0.000000 0.000000 0.000000 0.000001 0.000002 0.000005 0.000009 0.000016 0.000026 0.000039 0.000056 0.000079 0.000107 0.000141 0.000181 0.000226 0.000277 0.000332 0.000390 0.000448 0.000504 0.000556 0.000601 0.000637 0.000663 0.000676 0.000676 0.000663 0.000637 0.000601 0.000556 0.000504 0.000448 0.000390 0.000332 0.000277 0.000226 0.000181 0.000141 0.000107 0.000079 0.000056 0.000039 0.000026 0.000016 0.000009 0.000005 0.000002 0.000001 0.000000 0.000000 0.000000 0.000000 0.000001 0.000001 0.000001 0.000001 0.000001 
0.000001 0.000001 0.000001 0.000001 0.000000 0.000000 0.000000 0.000000 0.000000 0.000001 0.000002 0.000005 0.000009 0.000015 0.000024 0.000036 0.000051 0.000071 0.000096 0.000125 0.000160 0.000200 0.000244 0.000292 0.000341 0.000391 0.000439 0.000484 0.000523 0.000554 0.000575 0.000586 0.000586 0.000575 0.000554 0.000523 0.000484 0.000439 0.000391 0.000341 0.000292 0.000244 0.000200 0.000160 0.000125 0.000096 0.000071 0.000051 0.000036 0.000024 0.000015 0.000009 0.000005 0.000002 0.000001 0.000000 0.000000 0.000000 0.000000 0.000000 0.000001 0.000001 0.000001 0.000001 
0.000001 0.000001 0.000001 0.000000 0.000000 0.000000 0.000000 0.000000 0.000000 0.000001 0.000003 0.000005 0.000009 0.000014 0.000022 0.000033 0.000046 0.000064 0.000085 0.000111 0.000141 0.000176 0.000214 0.000254 0.000297 0.000339 0.000380 0.000418 0.000451 0.000477 0.000495 0.000505 0.000505 0.000495 0.000477 0.000451 0.000418 0.000380 0.000339 0.000297 0.000254 0.000214 0.000176 0.000141 0.000111 0.000085 0.000064 0.000046 0.000033 0.000022 0.000014 0.000009 0.000005 0.000003 0.000001 0.000000 0.000000 0.000000 0.000000 0.000000 0.000000 0.000001 0.000001 0.000001 
0.000001 0.000001 0.000000 0.000000 0.000000 0.000000 0.000000 0.000000 0.000000 0.000001 0.000003 0.000005 0.000008 0.000013 0.000020 0.000029 0.000041 0.000057 0.000075 0.000098 0.000124 0.000153 0.000185 0.000220 0.000256 0.000292 0.000326 0.000358 0.000386 0.000408 0.000423 0.000431 0.000431 0.000423 0.000408 0.000386 0.000358 0.000326 0.000292 0.000256 0.000220 0.000185 0.000153 0.000124 0.000098 0.000075 0.000057 0.000041 0.000029 0.000020 0.000013 0.000008 0.000005 0.000003 0.000001 0.000000 0.000000 0.000000 0.000000 0.000000 0.000000 0.000000 0.000001 0.000001 
0.000000 0.000000 0.000000 0.000000 0.000000 0.000000 0.000000 0.000000 0.000001 0.000001 0.000003 0.000005 0.000008 0.000012 0.000018 0.000026 0.000037 0.000050 0.000066 0.000085 0.000107 0.000132 0.000159 0.000189 0.000219 0.000249 0.000278 0.000304 0.000327 0.000346 0.000359 0.000365 0.000365 0.000359 0.000346 0.000327 0.000304 0.000278 0.000249 0.000219 0.000189 0.000159 0.000132 0.000107 0.000085 0.000066 0.000050 0.000037 0.000026 0.000018 0.000012 0.000008 0.000005 0.000003 0.000001 0.000001 0.000000 0.000000 0.000000 0.000000 0.000000 0.000000 0.000000 0.000000 