# vtk DataFile Version 3.0
vtk output
ASCII
DATASET UNSTRUCTURED_GRID
POINTS 10926 double
0 571.316 382.303
41.2791 557.088 361.106
0 609.806 344.916
0 525.398 408.227
0 552.527 325.549
15.3387 534.697 332.434
0 503.924 354.937
36.8458 599.58 310.062
53.4899 511.368 332.616
0 591.226 286.833
13.9142 492.068 316.405
0 634.54 297.103
44.2062 528.362 297.724
0 476.986 427.334
93.6735 531.075 345.547
52.316 475.203 403.002
40.5528 567.545 277.033
0 517.449 273.839
81.9494 577.824 295.361
46.5245 464.273 336.281
0 442.042 382.167
41.3593 616.706 263.565
84.2168 525.453 290.796
0 450.75 322.968
60.4883 488.68 287.999
88.7541 480.842 325.105
100.436 476.022 371.874
43.0858 434.222 372.719
61.6903 512.794 262.037
26.7158 445.529 297.633
0 645.946 245.308
30.4542 535.708 234.169
0 427.612 442.705
83.7934 558.02 249.732
84.6545 440.458 349.774
22.6878 479.987 249.79
0 583.534 216.576
116.948 488.432 302.648
72.6288 441.568 304.077
0 406.388 349.481
97.9101 518.282 254.906
138.567 533.221 296.534
43.5304 413.104 327.481
67.3732 490.753 243.219
53.143 571.818 215.431
0 444.125 256.301
96.2857 468.979 273.397
85.9536 602.035 227.154
112.273 548.726 242.047
145.727 474.913 337.627
0 522.446 204.858
0 411.235 292.132
0 386.241 394.766
72.3072 529.904 214.365
106.864 416.781 389.242
40.2177 630.221 204.635
59.4252 445.151 252.625
41.5558 385.051 365.208
127.033 443.433 318.615
131.482 569.763 241.245
79.0225 395.071 376.08
95.6958 490.74 232.187
25.8422 546.703 188.167
139.258 435.675 361.025
105.231 522.48 222.511
96.7084 569.147 207.757
29.8072 593.301 181.226
0 651.335 193.398
37.0835 494.941 196.294
0 464.275 206.599
31.9231 434.008 231.188
47.035 456.782 216.496
143.056 477.338 267.129
0 377.191 453.541
56.9225 396.784 283.458
89.2976 423.326 265.194
21.7082 371.191 324.749
90.2251 455.118 232.667
126.769 433.617 287.141
22.5376 399.253 261.386
17.5424 434.705 221.394
136.848 517.679 231.752
129.416 411.722 334.67
53.0659 371.877 428.484
80.1174 379.532 331.77
0 549.763 165.867
162.727 452.845 306.823
65.7532 564.937 172.034
123.245 450.534 246.912
0 396.358 246.801
173.157 535.459 254.366
55.1426 405.589 243.825
107.836 395.5 297.632
56.727 355.48 364.439
79.7983 471.29 195.163
119.115 494.458 205.722
46.5642 526.585 162.365
20.0507 378.094 260.2
189.398 490.872 287.589
0 497.582 161.34
0 341.916 346.586
181.071 437.44 330.208
93.9078 502.574 180.621
35.1998 388.638 241.857
0 418.406 204.079
38.7127 355.011 297.673
86.8239 610.632 165.995
130.919 588.012 186.663
42.475 415.768 208.229
0 336.351 407.559
133.085 530.162 190.272
103.289 356.261 365.341
91.4571 539.4 161.32
163.852 396.938 358.257
155.563 463.408 232.018
0 603.288 139.175
94.8377 384.713 256.948
55.447 368.749 255.189
0 346.764 280.483
165.234 425.8 274.242
83.9658 356.197 291.366
74.8337 425.296 195.391
105.93 413.029 222.65
133.135 402.38 258.464
175.363 557.696 208.568
114.205 452.266 195.636
22.8412 386.072 215.91
30.0821 420.879 184.52
51.6425 448.617 169.437
38.6986 324.595 394.62
0 650.856 141.52
151.622 389.794 294.969
44.5498 590.848 132.626
36.1371 635.748 137.873
119.603 356.678 321.392
32.4482 560.023 129.116
198.432 483.635 253.152
115.745 510.146 161.624
44.0406 480.155 144.799
81.0717 332.517 331.736
178.874 497.148 213.142
126.674 347.442 394.831
0 326.242 461.366
0 443.313 152.868
150.187 360.502 348.65
42.3047 313.542 349.378
125.709 471.883 168.849
80.602 316.757 375.761
77.5004 376.96 214.662
71.4931 554.536 122.28
30.7468 513.223 120.206
127.543 359.364 275.241
211.406 521.702 227.39
151.204 410.615 224.707
22.3402 335.229 247.606
97.7721 442.345 162.87
155.971 457.728 190.983
171.169 367.272 323.855
82.9864 463.862 143.88
22.0834 619.579 110.533
0 541.176 106.749
193.658 400.496 289.949
58.4777 309.079 320.119
0 361.459 202.078
85.3981 312.702 422.094
225.438 442.204 296.763
167.522 507.433 172.125
145.261 541.569 148.028
76.963 501.01 123.432
184.544 539.074 176.756
16.6181 578.669 100.483
60.8623 319.147 274.515
200.447 433.05 245.066
45.0502 300.797 442.082
36.0511 348.713 211.428
125.878 372.744 224.231
94.9122 338.883 249.279
27.592 303.861 289.793
114.282 536.086 123.763
0 295.693 311.94
122.505 317.472 347.299
0 479.894 110.317
215.664 395.107 325.955
114.784 396.717 186.46
179.499 569.781 158.061
46.7632 579.411 96.0476
135.902 593.685 127.719
0 285.566 419.283
34.9378 374.388 171.679
110.475 317.54 287.992
0 386.723 154.071
241.336 477.195 250.655
56.9065 322.983 235.024
86.88 614.156 103.143
167.69 375.274 242.404
51.3968 476.723 106.142
148.58 431.763 167.661
60.7924 408.946 141.139
195.922 351.912 353.725
33.5957 435.139 118.961
184.668 437.448 192.211
0 273.772 371.906
79.2684 286.408 340.275
191.849 359.442 297.607
139.822 497.124 127.667
0 647.513 90.0099
27.5033 551.23 81.9676
222.757 469.16 211.573
155.572 324.395 310.89
0 313.191 225.492
218.892 540.788 179.638
48.4165 273.686 372.846
79.8688 441.647 118.59
235.118 415.642 274.938
200.84 482.003 174.415
36.8705 273.858 328.128
180.306 518.158 142.705
0 600.962 73.6469
71.0279 514.463 86.3565
106.107 479.852 106.32
0 274.879 463.892
165.12 469.353 141.458
98.7145 328.182 215.581
22.0028 502.312 76.3152
24.1049 389.846 127.006
193.384 395.83 210.584
41.0573 629.706 74.4174
212.804 382.665 251.339
105.578 276.196 378.06
158.918 377.652 191.429
59.8243 274.375 288.723
170.955 305.897 380.311
74.7353 343.215 173.026
49.1747 259.421 416.182
37.7683 281.554 251.64
130.646 281.141 404.392
0 414.124 101.831
125.79 435.905 119.871
154.135 536.219 102.917
87.8957 588.036 72.2956
31.7168 352.128 148.731
67.7157 557.942 66.6105
254.817 502.651 202.667
151.67 334.089 226.793
117.833 556.11 81.5943
128.344 309.205 244.013
100.847 400.174 126.086
235.392 414.966 228.056
0 331.147 164.112
82.819 289.294 245.823
256.69 397.603 294.919
193.325 341.542 262.826
119.702 509.134 86.2841
193.907 316.801 333.708
28.5522 580.097 55.5235
36.8561 297.426 207.579
18.0231 454.377 75.9394
84.965 259.515 426.952
219.025 453.359 170.81
184.655 434.485 148.831
81.982 254.28 385.907
132.204 280.456 308.328
85.9217 465.13 82.1245
41.8306 252.498 446.575
102.588 277.855 272.46
0 263.18 262.672
18.1404 254.26 290.276
0 555.902 50.0426
181.608 404.132 162.679
0 242.933 419.785
61.1458 402.552 101.797
161.967 285.627 336.145
144.076 295.704 265.117
179.083 579.911 101.694
274.464 434.271 257.52
21.4108 239.751 355.792
56.2505 439.056 79.191
241.375 349.098 326.704
92.1002 257.699 312.214
213.726 330.462 293.49
145.826 270.206 358.42
226.972 512.643 141.779
48.3378 480.895 59.3786
168.774 483.536 101.857
66.4196 241.713 344.054
39.7266 526.334 46.602
217.608 416.069 174.865
200.397 352.582 217.7
119.581 330.248 173.676
0 237.451 315.636
136.188 595.855 69.5427
0 500.599 47.0108
220.812 556.008 123.602
142.545 468.946 88.5455
107.833 360.215 133.829
281.769 463.736 223.592
100.483 430.253 84.0391
118.615 249.872 349.885
207.117 473.327 125.405
161.989 402.532 128.39
152.123 364.957 147.894
257.886 381.339 252.41
45.7594 227.236 381.947
186.843 292.302 294.602
45.1747 248.119 259.08
0 641.91 38.7962
231.195 370.451 217.667
54.5794 234.143 311.473
86.2052 298.34 181.589
66.6711 266.826 223.571
181.196 310.355 236.841
88.1173 608.425 43.404
0 349.802 108.378
182.262 546.713 80.6378
203.115 371.316 174.655
21.1917 256.642 220.859
67.9382 577.81 32.8635
127.787 293.899 202.37
21.2354 219.26 411.247
264.72 522.431 152.472
270.908 422.01 209.204
241.18 340.159 261.08
0 223.544 463.306
148.534 531.302 56.311
106.113 558.175 37.2866
67.6971 220.993 415.943
62.8968 345.449 108.071
83.278 512.581 35.1424
115.977 265.263 230.877
20.0695 404.629 61.0844
206.201 398.268 141.987
0 595.113 19.6144
81.2672 236.337 273.549
263.53 438.275 175.83
222.765 289.22 357.411
0 277.911 168.584
17.4028 471.96 31.4416
206.282 528.019 86.5786
46.9042 303.788 138.977
91.8452 316.309 138.54
249.965 464.206 141.931
182.996 329.246 180.973
30.6804 557.594 16.4772
191.928 432.29 103.278
189.745 263.179 331.34
42.6929 621.98 19.3988
125.823 239.792 286.306
228.672 291.733 315.243
175.988 248.181 387.54
25.7811 214.845 287.455
0 430.801 38.0312
156.887 237.586 354.739
88.044 211.749 370.175
88.9858 372.285 79.7226
128.321 224.356 411.165
179.892 507.156 61.9485
66.1231 399.206 56.6641
0 198.792 379.072
119.811 487.692 37.4245
46.9755 258.538 181.888
134.117 229.521 314.747
167.243 249.937 292.475
82.3207 439.75 40.2729
241.154 425.883 137.359
39.524 363.944 71.7843
263.001 389.125 188.787
91.7331 212.395 324.003
51.0181 201.245 344.462
37.576 428.231 33.807
225.591 292.821 268.508
142.214 360.959 102.07
167.721 275.494 218.279
290.491 349.096 294.039
137.188 323.823 130.616
62.1694 204.297 440.797
148.246 245.67 259.078
164.422 307.717 165.194
130.334 441.574 49.5591
70.6935 547.36 8.50635
141.492 402.93 71.8593
241.559 325.17 225.68
48.4655 500.16 10.3148
188.72 267.684 254.902
261.485 313.391 289.758
307.464 388.327 259.002
15.7089 216.408 244.276
207.112 470.934 78.3414
0 291.51 119.982
305.657 480.541 175.264
244.601 487.773 101.288
244.706 383.428 157.564
123.669 286.809 156.174
275.779 356.629 220.397
296.349 387.029 219.988
234.042 441.73 103.61
319.836 435.449 215.249
0 544.345 -7.09354
0 363.686 51.8436
134.277 589.633 15.7446
103.104 240.833 201.776
31.865 319.303 84.6289
174.718 481.375 44.3631
109.274 221.738 247.562
173.171 435.055 59.0559
0 198.334 265.579
191.578 376.288 103.18
209.334 567.926 51.2055
31.1761 185.686 430.46
56.5334 184.96 393.51
0 222.192 203.209
274.802 300.693 324.029
59.6766 199.713 271.501
249.85 344.276 183.48
179.841 339.449 119.874
52.1656 267.264 136.317
270.294 536.411 99.2275
128.286 201.071 351.277
213.673 254.096 292.215
32.2558 534.688 -11.0155
0 181.977 322.859
107.926 562.078 1.20703
216.613 354.7 133.644
107.986 201.202 294.632
80.0864 271.014 135.392
205.863 278.797 212.734
87.1869 479.434 4.75578
83.2283 601.968 -6.57666
108.071 400.654 39.1952
107.442 330.415 84.2632
36.5882 217.227 204.763
0 634.259 -12.1214
71.786 300.03 99.4545
60.5598 573.434 -12.9744
302.606 413.327 181.556
[...]
CELL_DATA 58977
SCALARS chem_0 double
LOOKUP_TABLE default
0.742637 0.545693 0.560727 0.420077 0.610618 0.12266 0.256628 0.126554 0.211942 1 0.510083 0.113712 0.110735 0.112247 0.192889 0.228248 0.575783 1 0.0980752 0.214105 0.587239 0.162324 0.702194 0.99163 0.99438 0.99698 0.997103 0.997776 0.75579 0.804749 0.863159 0.863462 0.84555 0.771443 0.843206 0.84393 0.465943 0.636753 0.645156 0.563886 0.545584 0.458766 0.28166 0.457339 0.212989 0.263921 0.161649 0.135817 0.138814 0.253621 0.333806 0.335603 0.320231 0.264568 0.304027 0.570262 1 0.61498 0.580742 0.475295 0.172894 0.122728 0.688976 0.161344 0.802967 0.775038 0.479803 0.314557 0.33039 0.313469 0.335218 0.431245 0.455515 0.77558 0.35373 0.711782 0.635498 0.491796 0.994055 0.999744 0.999859 0.999954 0.102175 0.994479 0.72009 0.104259 0.995838 0.130445 0.828165 0.848585 1 1 0.141507 0.776782 0.996403 0.118103 0.998798 0.996772 0.103804 1 0.948738 0.181997 0.130247 0.991817 0.999876 0.162313 0.124545 0.12991 0.103306 0.635149 0.651312 0.675924 0.664132 0.663256 0.695947 0.114766 0.194015 0.117751 0.999902 0.139764 0.991131 0.126685 0.312976 0.999877 1 1 1 1 1 1 1 1 1 1 1 1 1 1 1 1 1 1 1 1 1 1 1 1 1 1 0.16031 0.999652 0.140391 1 1 1 1 1 1 1 1 1 1 1 1 0.99993 0.999908 0.154756 1 1 0.658374 0.125965 0.117288 1 0.999878 0.121933 1 1 1 0.217545 1 0.104791 1 0.226488 0.689206 0.415684 0.405362 0.619453 0.675986 0.553584 0.676923 0.820739 0.105623 0.14778 0.290602 0.591341 0.583028 1 1 0.336532 0.994214 1 1 1 1 1 1 1 0.88008 0.879164 0.88376 1 0.180817 1 1 1 1 1 1 0.127881 0.138927 1 1 0.779195 0.112884 0.273489 1 0.515632 0.722545 0.619991 0.57849 0.259263 0.200833 0.252623 0.129033 1 1 1 0.259002 1 0.243248 1 0.146202 0.0982577 0.148722 0.112297 0.0984064 0.109386 0.110463 0.151575 1 1 1 0.440623 0.65262 1 0.887219 1 1 1 0.88363 0.119398 0.103419 0.105467 0.114301 0.115242 1 0.120557 0.64876 0.937936 0.165062 1 0.137831 1 1 0.14056 0.32257 0.481964 1 1 1 1 1 1 1 1 1 1 1 1 1 1 1 1 1 1 1 1 1 1 1 1 1 1 1 1 1 1 1 1 1 1 1 1 1 1 1 1 1 1 1 1 1 1 1 1 1 1 1 1 1 1 1 1 1 1 1 1 1 1 1 1 1 1 1 1 1 1 1 1 1 1 1 1 1 1 1 1 1 1 1 1 1 1 1 1 1 1 1 1 1 1 0.932657 1 1 1 0.134286 1 0.353001 1 0.328046 0.828558 0.951021 1 1 1 1 1 0.484377 0.585528 0.377504 0.237562 0.271699 0.221731 0.239141 0.273427 0.495123 0.385957 0.604799 0.264154 0.222703 0.251827 0.274924 0.304528 0.406286 0.172539 0.202061 0.252765 0.119338 0.135621 0.122905 0.10721 0.221591 0.640997 0.669406 0.469759 0.204071 0.153301 0.561141 0.407313 0.665567 0.702114 0.733416 0.247124 0.16292 0.15407 0.11896 0.114456 0.121368 0.137226 0.111908 0.117743 0.142633 0.105929 0.103357 0.11256 0.103061 0.102196 0.113869 0.112842 0.128442 0.117888 0.124521 0.122632 0.177658 0.198383 0.2288 0.232164 0.103548 0.355845 0.397895 0.114881 0.102477 0.103298 0.119196 0.104346 0.104061 0.108044 0.121561 0.183374 0.194205 0.397957 0.106936 0.106762 0.117285 0.116391 0.123555 0.112319 0.435846 0.113166 0.110318 0.114528 0.116319 0.57092 0.293334 0.103966 0.103791 0.171373 0.477498 0.186386 0.105253 0.109874 0.131316 0.109004 0.115458 0.108243 0.244147 0.37308 0.11931 0.543997 0.109622 0.11076 0.109913 0.124389 0.109747 0.103684 0.244649 0.276743 0.416477 0.10871 0.218122 0.450947 0.129873 0.114697 0.472798 0.140402 0.714419 0.123947 0.190532 0.139788 0.54205 0.536474 0.693569 0.146286 0.128964 0.414284 0.695374 0.537041 0.469964 0.112517 0.247272 0.106935 0.228681 1 0.841036 0.744568 1 0.878182 1 0.113643 1 0.116935 0.138413 0.115369 0.112288 0.206487 1 0.727955 0.108694 0.110101 1 0.511812 1 0.754551 0.199522 0.11621 0.999999 0.100667 0.401935 0.999999 0.999999 1 0.566304 0.999999 0.104084 0.106131 0.182256 0.10847 0.099664 0.0959436 0.993422 0.995917 0.996504 0.984364 0.982047 0.981463 0.104897 0.104736 1 1 0.101373 0.110754 0.994555 0.182834 0.137995 0.144677 0.107439 1 0.985014 1 0.198011 1 1 0.305567 1 1 0.118799 0.10228 0.831166 0.168334 0.324705 0.578633 1 1 1 0.999999 1 0.999999 0.999999 0.999999 1 0.999999 0.999999 0.999998 0.999998 0.999999 0.999998 0.999999 0.999995 0.999995 0.999994 0.999995 0.999998 0.999998 0.999998 0.999993 0.999999 0.999993 0.999995 0.999994 0.999993 0.999993 0.999994 0.999998 0.999998 0.999999 0.999999 0.999999 0.999999 0.999999 0.999999 0.999999 0.999995 0.999995 0.999997 0.99999 0.999988 1 0.993137 1 0.107245 0.106212 1 1 0.167745 0.998876 0.129165 0.581007 1 1 0.122777 0.625047 0.190788 0.154417 0.106502 1 0.121489 0.610388 0.666907 0.664022 1 1 0.124835 0.999855 0.999876 0.999913 0.999661 0.999345 0.999846 0.999698 1 0.129113 0.813203 0.999999 1 0.119377 0.119299 0.99393 0.111846 0.278 0.115677 0.999999 0.148035 0.996144 0.845077 0.493048 0.866019 0.743052 0.329787 0.107269 0.136421 0.980134 0.229 1 1 0.105876 0.999993 1 0.102669 0.104893 0.985916 1 0.999851 0.146221 0.575609 0.172021 0.131098 0.0961402 0.105828 0.999998 1 0.999912 0.999792 1 0.101339 0.651079 0.0979945 0.208157 0.999994 0.999989 0.999982 0.104595 1 0.999983 0.182331 1 0.999989 0.218854 1 1 1 1 0.309132 0.172943 0.163792 0.142566 1 1 1 0.999982 0.999999 1 0.106286 0.177391 0.160447 0.171846 0.980208 0.111361 0.999993 0.105428 0.111804 0.990405 0.999994 0.723899 0.477192 0.113417 0.105625 1 0.668115 0.214135 1 0.84297 0.714858 0.785728 0.755674 0.186342 0.753584 0.999981 1 1 0.108126 0.266184 0.642644 0.999999 0.852061 0.796409 0.671495 0.565941 0.581455 0.692455 0.790068 0.633251 0.56572 0.781706 0.722703 0.776476 0.655449 0.769759 1 0.857944 0.854092 0.880487 0.999982 0.138274 1 0.109087 0.109085 0.999851 0.11503 0.179606 0.99969 0.108516 0.93297 0.224569 0.1065 0.113636 0.131572 0.105558 0.112097 0.116835 0.120762 0.109744 0.999999 0.297023 0.108524 1 0.117608 1 1 1 0.937961 0.685762 0.941165 0.197451 1 1 0.200285 0.105293 0.105789 0.111335 0.111601 0.107023 0.129933 0.1485 0.156083 0.163977 0.157867 0.15323 0.11531 0.11661 0.10501 0.108333 0.107424 0.106069 0.115869 0.11699 0.110709 0.158743 0.132724 0.115695 0.117801 0.121797 0.120194 0.125341 0.119619 0.12475 0.1218 0.10681 0.108479 0.122427 0.116139 0.117634 0.126974 0.105921 0.123846 0.118856 0.112266 0.121561 0.367451 0.400267 0.205189 0.113328 0.104602 0.130633 0.104514 0.173305 0.216255 0.10857 0.105796 0.535025 0.323175 0.103257 0.544589 0.228153 0.554344 0.20026 0.126752 0.119812 0.233335 0.225092 0.119595 0.119446 0.144347 0.397655 0.146044 0.139903 0.559255 0.407505 0.12001 0.552503 0.124796 0.119779 0.1085 0.376577 0.185201 0.121629 0.234582 0.112285 0.24645 0.120659 0.131244 0.546929 0.420634 0.132098 0.218385 0.119547 0.13121 0.114174 0.114666 0.124549 0.124755 0.112696 0.114571 0.131325 0.121835 0.245059 0.222034 0.222561 0.127061 0.122571 0.114677 0.114678 0.110223 0.118261 0.102793 0.695622 0.112873 0.108689 0.10976 0.278931 0.108909 0.117185 0.106426 0.105849 0.105777 0.107871 0.107221 0.110401 0.108966 0.117696 0.108946 0.114612 0.112393 0.10528 0.107819 0.110124 0.107252 0.11193 0.117222 0.12097 0.120369 0.111374 0.116309 0.148744 0.107355 0.123321 0.123113 0.121846 0.119517 0.112243 0.124121 0.183903 0.112678 0.113821 0.110791 0.109258 0.107623 0.111288 0.109789 0.113876 0.107484 0.11128 0.126654 0.127675 0.109315 0.108044 0.108929 0.109625 0.105196 0.106868 0.106371 0.115843 0.108225 0.112634 0.102744 0.117565 0.109447 0.105572 0.118056 0.12551 0.119301 0.158487 0.108252 0.119722 0.120064 0.108255 0.112143 0.1193 0.112491 0.110849 0.106693 0.141581 0.113801 0.104408 0.191609 0.164222 0.110751 0.11003 0.143045 0.114343 0.128172 0.128178 0.132926 0.131955 0.117437 0.118607 0.231076 0.22274 0.119178 0.110954 0.105161 0.11359 0.105482 0.129878 0.107473 0.115775 0.124218 0.106933 0.268774 0.126018 0.203681 0.105856 0.113517 0.133776 0.108507 0.103902 0.134646 0.225706 0.108136 0.189094 0.121983 0.106656 0.106736 0.108901 0.283135 0.129697 0.165685 0.125013 0.203956 0.128785 0.105818 0.128333 0.132963 0.105888 0.198104 0.108064 0.147054 0.182076 0.12302 0.122518 0.115818 0.106779 0.110725 0.205502 0.706801 0.268566 1 0.970888 0.974306 0.105202 0.106234 0.840873 1 0.212836 1 0.999979 0.212548 0.999995 0.110778 0.107327 1 0.11344 0.213483 0.154973 0.876208 0.110251 1 0.999989 0.102817 0.99999 1 0.999998 0.876532 0.107541 0.116546 0.114512 0.110052 0.110279 0.109857 0.128821 0.121611 0.117256 0.11302 0.1249 0.121389 0.17454 0.146543 0.146559 0.168311 0.171985 0.216108 0.149241 0.136247 0.115104 0.113053 0.113226 0.10921 0.137192 0.14303 0.162571 0.111359 0.164071 0.115947 0.572948 0.999999 1 0.134117 0.630542 0.342698 0.154999 0.290078 0.200023 0.109929 0.633719 0.108421 0.141831 0.134465 0.105773 0.112418 0.11378 0.939789 0.155697 0.114613 0.162843 0.118452 0.119431 0.952613 0.416548 0.263692 1 0.110033 0.925161 0.430689 0.469337 0.344959 0.996038 0.998221 0.997983 0.999976 1 0.222901 0.12613 0.198538 0.110388 0.106308 0.547024 1 0.106332 0.123522 0.999992 0.160706 0.115594 0.109698 0.539478 1 0.910224 0.543967 0.242374 0.999959 0.122083 0.121073 0.113673 0.117522 1 1 0.778481 1 0.187341 1 0.103903 0.109159 0.125058 0.116579 0.835587 0.642521 0.114203 0.109215 0.815733 0.999976 0.108123 0.974185 0.110053 0.999996 0.177452 0.1244 0.708215 0.125795 0.122273 0.12661 0.131992 0.118776 0.120918 0.117673 0.115228 0.115623 0.116946 0.11963 0.134338 1 0.924719 0.350292 1 0.107268 0.117676 0.0946184 0.112285 0.125806 0.144331 1 0.98299 0.117212 0.959542 0.999959 0.10189 0.2037 1 0.113175 0.996011 0.998026 0.998369 0.112945 1 1 1 0.999984 0.104788 1 0.928433 0.532061 0.999963 0.881915 0.108675 0.957563 0.728615 0.462305 0.110013 0.459156 1 0.165639 0.908008 0.74507 1 0.125809 0.102443 0.120886 0.784378 0.105933 0.104638 1 0.998821 0.670006 0.121425 0.104221 0.150608 0.0995318 0.52615 0.48876 0.160497 0.143192 0.318246 0.147829 0.15613 0.131377 0.156318 0.160807 0.183051 0.163008 0.293313 0.324922 0.126426 0.152411 0.135085 0.12405 0.460547 0.126609 0.267606 0.551558 0.559279 0.259584 0.312424 0.576337 0.114262 0.139334 0.121541 0.131008 0.113463 0.114982 0.109227 0.117065 0.123209 0.146609 0.112293 0.155783 0.133989 0.120809 0.117463 0.113721 0.116081 0.109809 0.111197 0.112348 0.117142 0.117804 0.109109 0.114178 0.119921 0.117994 0.128562 0.107746 0.108747 0.115753 0.126117 0.142328 0.128026 0.185478 0.235625 0.148176 0.140207 0.114167 0.137423 0.117124 0.10984 0.110558 0.133215 0.409309 0.204902 0.11447 0.191458 0.194847 0.11078 0.425998 0.415124 0.192133 0.194581 0.113991 0.12585 0.111265 0.121614 0.130218 0.109012 0.108601 0.115291 0.163753 0.157898 0.51343 0.13008 0.124111 0.150973 0.256907 0.116035 0.125385 0.125242 0.121828 0.114716 0.119312 0.108938 0.206624 0.13841 0.136261 0.115568 0.136383 0.127414 0.12473 0.113606 0.113992 0.51269 0.115722 0.645782 0.622789 0.124435 0.617492 0.297468 0.128088 0.115291 0.613754 0.633998 0.109588 0.274138 0.313685 0.65054 0.321222 0.116469 0.129021 0.669511 0.686617 0.776113 0.878967 0.790116 0.776277 0.816521 0.880745 0.875692 0.705451 0.904698 0.734155 0.679917 0.813754 0.71979 0.703512 0.777996 0.878772 0.833723 0.892345 0.838473 0.657724 0.89987 0.893216 0.892796 0.915207 0.920488 0.910717 0.851276 0.926184 0.816855 0.854305 0.840976 0.867617 0.865897 0.821667 0.793483 0.727163 0.824887 0.857977 0.821806 0.769653 0.751775 0.680087 0.654007 0.676797 0.705369 0.61327 0.911275 0.733268 0.687242 0.721847 0.830749 0.646552 0.664886 0.435623 0.397833 0.285171 0.391695 0.625817 0.922077 0.740671 0.71769 0.944926 0.929702 0.2254 0.894235 0.258813 0.650993 0.670455 0.764389 0.903626 0.804158 0.870534 0.897876 0.215047 0.70437 0.339358 0.936353 0.700224 0.562318 0.678003 0.721127 0.407631 0.447825 0.946361 0.531983 0.805156 0.808575 0.859785 0.72924 0.44049 0.727352 0.414595 0.822013 0.735394 0.930134 0.820464 0.557414 0.187797 0.295123 0.694197 0.672529 0.239044 0.941819 0.874985 0.410853 0.467729 0.458683 0.261176 0.317165 0.914026 0.725897 0.932754 0.936758 0.822247 0.354675 0.905287 0.805589 0.377553 0.822915 0.863976 0.466943 0.906694 0.915338 0.899208 0.134999 0.135345 0.175229 0.942371 0.94318 0.320861 0.912809 0.256799 0.434417 0.399003 0.698173 0.715469 0.773859 0.783569 0.860101 0.870548 0.824029 0.876823 0.836766 0.939117 0.904663 0.87924 0.800555 0.859037 0.884224 0.796867 0.782882 0.793119 0.885938 0.727371 0.782274 0.933863 0.784889 0.119032 0.126943 0.908414 0.362397 0.406903 0.387852 0.58117 0.70775 0.483142 0.483493 0.809502 0.818477 0.93499 0.609483 0.640109 0.94171 0.931552 0.585065 0.808281 0.631554 0.152242 0.138689 0.20479 0.521899 0.936554 0.936292 0.140716 0.113849 0.571263 0.714269 0.738552 0.715181 0.736061 0.731896 0.582373 0.600095 0.912129 0.853183 0.518911 0.59329 0.711813 0.908567 0.63377 0.941874 0.107959 0.209711 0.599538 0.112265 0.120086 0.218098 0.815337 0.11395 0.620459 0.719283 0.682865 0.168316 0.125932 0.136306 0.134849 0.12714 0.135759 0.129022 0.137278 0.137898 0.134968 0.133814 0.126947 0.13839 0.138485 0.137834 0.135166 0.138298 0.142084 0.142827 0.122419 0.777936 0.149229 0.163796 0.122577 0.606302 0.461734 0.175084 0.115677 0.250473 0.328126 0.892461 0.121657 0.112033 0.122955 0.13296 0.152667 0.176195 0.163686 0.920452 0.658243 0.127362 0.137949 0.149455 0.172333 0.175954 0.132911 0.167294 0.165505 0.130253 0.199431 0.175394 0.193656 0.539869 0.761785 0.766633 0.663792 0.230345 0.705245 0.74189 0.212305 0.136163 0.453287 0.120054 0.132484 0.176677 0.112069 0.110667 0.16531 0.189053 0.123659 0.121027 0.185622 0.206639 0.272147 0.300266 0.230259 0.203012 0.182394 0.125434 0.666656 0.719144 0.504885 0.467239 0.120442 0.1772 0.126876 0.714509 0.706867 0.659019 0.691817 0.284937 0.730356 0.472842 0.594677 0.130889 0.78643 0.182933 0.263057 0.839051 0.844109 0.845329 0.79217 0.774139 0.846858 0.708202 0.181496 0.385024 0.407059 0.207983 0.353611 0.126832 0.37288 0.124762 0.891745 0.899673 0.726515 0.119903 0.262478 0.372273 0.656345 0.91619 0.91648 0.911364 0.854045 0.109072 0.91392 0.844501 0.79008 0.517456 0.854935 0.924105 0.205373 0.8456 0.738371 0.131147 0.153329 0.137866 0.648859 0.124661 0.621208 0.632397 0.427066 0.120743 0.188441 0.303376 0.428793 0.212852 0.131502 0.386424 0.362979 0.684765 0.605847 0.61109 0.924116 0.852024 0.926426 0.594182 0.59028 0.114534 0.627533 0.596094 0.797957 0.873157 0.730127 0.73041 0.580062 0.674057 0.867578 0.87081 0.873314 0.464176 0.569419 0.136165 0.898309 0.643778 0.456071 0.636871 0.167057 0.109865 0.894346 0.918005 0.131729 0.115198 0.120233 0.481988 0.883599 0.622178 0.784054 0.145325 0.571317 0.451613 0.735135 0.120325 0.121047 0.135335 0.112829 0.120847 0.121551 0.122081 0.123456 0.122561 0.122909 0.11372 0.113396 0.128513 0.136574 0.121877 0.715048 0.945453 0.113396 0.905206 0.890941 0.627742 0.569146 0.935279 0.108863 0.699379 0.685778 0.727591 0.651168 0.180261 0.139425 0.955908 0.751985 0.955791 0.816703 0.739372 0.117081 0.605179 0.631953 0.112526 0.165402 0.294231 0.230722 0.481089 0.513774 0.933345 0.734719 0.743128 0.918701 0.408802 0.875853 0.65502 0.7089 0.188527 0.837886 0.704858 0.851083 0.875739 0.86582 0.874951 0.697464 0.655784 0.766307 0.885758 0.75644 0.603396 0.11554 0.702113 0.188411 0.161593 0.942716 0.543576 0.945257 0.118685 0.763835 0.638062 0.933951 0.136862 0.599454 0.360483 0.272368 0.438539 0.901933 0.885647 0.146216 0.153065 0.632391 0.452367 0.631127 0.646637 0.750667 0.664242 0.61319 0.213348 0.63529 0.614892 0.618957 0.817031 0.730064 0.723463 0.804479 0.540008 0.79653 0.610028 0.746515 0.936495 0.936634 0.946437 0.948165 0.954843 0.134458 0.136035 0.690724 0.675942 0.582625 0.596129 0.658637 0.961294 0.68637 0.623904 0.276341 0.95283 0.889502 0.73589 0.951114 0.140196 0.591041 0.857308 0.502298 0.798313 0.584274 0.232467 0.134346 0.137563 0.956951 0.307 0.405132 0.334321 0.521287 0.130936 0.35262 0.110908 0.8828 0.707508 0.638401 0.69629 0.708715 0.119139 0.803693 0.965482 0.905993 0.916226 0.637939 0.849688 0.836992 0.108991 0.966302 0.106465 0.871663 0.190298 0.679746 0.559334 0.136857 0.164192 0.111641 0.699577 0.134651 0.142205 0.143377 0.113452 0.116532 0.770703 0.684316 0.714457 0.783504 0.67887 0.895609 0.352066 0.291309 0.244565 0.1554 0.923817 0.957973 0.656194 0.251589 0.498724 0.503078 0.49261 0.115984 0.118359 1 1 0.111524 0.108706 0.653594 0.831817 1 0.998399 0.998329 0.846315 0.79483 0.732605 0.643635 0.6822 0.727434 0.740981 0.62879 0.781228 0.79643 0.800056 0.859799 0.853508 0.602796 0.658871 0.675592 0.413339 0.373504 0.642031 0.597006 0.579662 0.146125 0.775072 0.145068 0.291632 0.153618 0.753293 0.604285 0.782526 0.795433 0.819261 0.854189 0.344177 0.613785 0.758104 0.266981 0.496474 0.128438 0.154383 0.488756 0.813568 0.885567 0.888493 0.128154 0.716031 0.717471 0.795429 0.27033 0.115697 0.886492 0.142491 0.245865 0.149017 0.757519 0.206097 0.524145 0.598002 0.795761 0.886949 0.899404 0.125291 0.881485 0.15271 0.898175 0.895536 0.13435 0.739151 0.150685 0.804939 0.810037 0.761548 0.775866 0.898222 0.213191 0.145337 0.816434 0.789495 0.785247 0.107593 0.10491 0.112937 0.541614 0.137665 0.431951 0.597835 0.380111 0.489721 0.128553 0.188755 0.630409 0.592038 0.506718 0.636184 0.682377 0.646881 0.628144 0.650094 0.670085 0.552774 0.45598 0.456893 0.480092 0.552413 0.688985 0.273712 0.686094 0.2562 0.63976 0.68184 0.673967 0.426404 0.173075 0.18041 0.69884 0.574698 0.514283 0.329109 0.164329 0.618701 0.638577 0.507026 0.575454 0.509293 0.681974 0.535126 0.587477 0.633618 0.67986 0.650788 0.647451 0.670246 0.671359 0.599698 0.630328 0.65669 0.686001 0.540888 0.628148 0.630215 0.682967 0.471814 0.296088 0.262746 0.278157 0.217882 0.299829 0.496273 0.537223 0.157045 0.68361 0.307585 0.420026 0.644116 0.646377 0.626969 0.66402 0.75647 0.691194 0.576464 0.652998 0.63186 0.129194 0.627605 0.655496 0.759949 0.284226 0.683835 0.675747 0.287758 0.603787 0.568916 0.670481 0.252016 0.764465 0.690317 0.769139 0.682838 0.784089 0.572546 0.685476 0.696386 0.654127 0.648033 0.170754 0.655374 0.67533 0.645405 0.167553 0.142442 0.447177 0.298972 0.665785 0.639792 0.58005 0.605668 0.688296 0.573953 0.678892 0.333181 0.568593 0.683211 0.591283 0.544357 0.422735 0.412729 0.372548 0.421569 0.419036 0.423777 0.562633 0.566597 0.613325 0.499702 0.230005 0.495378 0.516707 0.218164 0.497431 0.566975 0.161117 0.118584 0.220378 0.153686 0.1776 0.20798 0.115335 0.516736 0.743243 0.756748 0.131141 0.113811 0.242662 0.551153 0.214012 0.646173 0.627669 0.651973 0.625268 0.380209 0.590451 0.673512 0.629454 0.636563 0.322936 0.35132 0.545344 0.325276 0.684372 0.686549 0.124896 0.215568 0.682131 0.385402 0.666799 0.608594 0.623851 0.755171 0.545407 0.543841 0.112877 0.123649 0.548143 0.767371 0.768131 0.732133 0.503613 0.560077 0.110637 0.109293 0.199411 0.221251 0.308186 0.474263 0.741201 0.763883 0.31671 0.588841 0.743919 0.753091 0.643416 0.153973 0.239452 0.646177 0.635542 0.394407 0.269243 0.273252 0.309717 0.338918 0.111963 0.173388 0.452996 0.146085 0.711565 0.788649 0.542148 0.110197 0.615038 0.717818 0.694011 0.174686 0.154476 0.108659 0.547392 0.498734 0.651155 0.106447 0.131065 0.688107 0.695369 0.63403 0.195928 0.152374 0.772958 0.111144 0.292732 0.111155 0.200888 0.150213 0.244914 0.146747 0.729978 0.77198 0.752258 0.472774 0.104607 0.117336 0.349758 0.133861 0.555193 0.113441 0.218865 0.456307 0.691856 0.184635 0.152544 0.614354 0.620566 0.609734 0.664644 0.629026 0.679157 0.67366 0.693876 0.61215 0.681044 0.681571 0.630871 0.691514 0.627806 0.143604 0.132451 0.21195 0.396354 0.690943 0.262175 0.149359 0.804731 0.838993 0.835099 0.764346 0.106292 0.102912 0.571804 0.108317 0.162364 0.285519 0.344842 0.324808 0.297938 0.161465 0.2214 0.111137 0.113538 0.25377 0.104897 0.107853 0.544865 0.117583 0.370918 0.187269 0.437325 0.200377 0.111575 0.39431 0.108541 0.107074 0.939271 0.914196 0.103324 0.372927 0.646592 0.740012 0.111323 0.295785 0.116162 0.681421 0.717871 0.722612 0.701276 0.634779 0.237693 0.726247 0.188937 0.173209 0.18019 0.122856 0.349742 0.892802 0.885315 0.826749 0.836147 0.772591 0.7777 0.733731 0.73043 0.769824 0.806968 0.790261 0.769573 0.744969 0.882016 0.116228 0.100622 0.10635 0.316316 0.103414 0.261209 0.590951 0.472194 0.113836 0.111345 0.11714 0.116924 0.114087 0.727013 0.114011 0.107302 0.115965 0.10773 0.69862